integrator               = steep
nsteps                   = 10000
nstxout                  = 0
nstfout                  = 0
nstlog                   = 100 
emtol                    = 1000
emstep                   = 0.01 

cutoff-scheme            = Verlet
nstlist                  = 1
ns_type                  = grid
pbc                      = xyz
coulombtype              = PME
rcoulomb                 = 0.9
rvdw                     = 0.9


freezegrps               = MAL
freezedim                = Y Y Y 



