[ atomtypes ]
; name        mass      charge    ptype               sigma             epsilon
    o   8   16.0000    -0.62288        A        2.959927e-01        8.786400e-01 ;     1.66  0.2100
    c   6   12.0100     0.62001        A        3.399676e-01        3.598240e-01 ;     1.91  0.0860
    h4  1    1.0080     0.03542        A        2.510557e-01        6.276000e-02 ;     1.41  0.0150
    ce  6   12.0100    -0.68032        A        3.399676e-01        3.598240e-01 ;     1.91  0.0860
    ha  1    1.0080     0.19156        A        2.599647e-01        6.276000e-02 ;     1.46  0.0150
    oh  8   16.0000    -0.60352        A        3.066479e-01        8.803136e-01 ;     1.72  0.2104
    ho  1    1.0080     0.52645        A        0.000000e+00        0.000000e+00 ;     0.00  0.0000
    oa  8   16.0000     0.00000        A        3.013203e-01        8.794764e-01 ;     average of "o" and "oh"
