     9
    1 MAL  O1      1   0.354   0.142   0.000  0.0000  0.0000  0.0000
    1 MAL  C1      2   0.348   0.266  -0.000  0.0000  0.0000  0.0000
    1 MAL  H1      3   0.442   0.324   0.000  0.0000  0.0000  0.0000
    1 MAL  C2      4   0.224   0.340  -0.000  0.0000  0.0000  0.0000
    1 MAL  H2      5   0.225   0.448  -0.000  0.0000  0.0000  0.0000
    1 MAL  C3      6   0.106   0.272  -0.000  0.0000  0.0000  0.0000
    1 MAL  H3      7   0.009   0.323  -0.000  0.0000  0.0000  0.0000
    1 MAL  O2      8   0.095   0.140  -0.000  0.0000  0.0000  0.0000
    1 MAL  H4      9   0.189   0.105   0.000  0.0000  0.0000  0.0000
