integrator              = md
nsteps                  = 50000
dt                      = 0.001
comm-mode               = Linear
nstcomm                 = 1
comm_grps               = System

nstxout                 = 100
nstvout                 = 100
nstenergy               = 10
nstlog                  = 10

continuation            = yes
constraint_algorithm    = lincs
constraints             = h-bonds
lincs_iter              = 1
lincs_order             = 4

cutoff-scheme           = Verlet
ns_type                 = grid
nstlist                 = 10
rcoulomb                = 0.9
rvdw                    = 0.9
DispCorr                = EnerPres

coulombtype             = PME
pme_order               = 4
fourierspacing          = 0.16

tcoupl                  = Berendsen
tc-grps                 = System
tau_t                   = 0.2
ref_t                   = 300
; Pressure coupling is on
pcoupl                  = Berendsen
pcoupltype              = isotropic
tau_p                   = 0.2
ref_p                   = 1.0
compressibility         = 4.5e-5
refcoord_scaling        = com

pbc                     = xyz

gen_vel                 = no
