#define _TIP3P

#include "fftip3pnb.itp"

[ moleculetype ]
; molname       nrexcl
SOL             1

[ atoms ]
; id    at type res nr  residu name     at name         cg nr   charge
1       OW      1       SOL              OW             1       -0.834
2       HW      1       SOL             HW1             1        0.417
3       HW      1       SOL             HW2             1        0.417

[ settles ]
; i     j       dO-H    dH-H
1       1       0.09572 0.15139

[ exclusions ]
; i exluded from ....
 1  2  3
 2  1  3
 3  1  2

